144  
5    

1    
  0.0100000000000000   0.0000000000000000   0.0000000000000000
  -0.0207216600   -0.0001552800    0.0026153500
   0.0007926900   -0.0001101000    0.0021856500
   0.0006583100   -0.0000008500    0.0024220900
   0.0007678900    0.0001134400    0.0026498700
  -0.0002002600   -0.0006763000    0.0022107300
  -0.0001988300    0.0006788500    0.0026350400
   0.0002156500    0.0001266700    0.0024461900
   0.0002149500   -0.0001260200    0.0023983800
  -0.0000142100   -0.0003862000    0.0023009100
  -0.0000033700    0.0000002200    0.0024224100
  -0.0000113100    0.0003886700    0.0025433100
  -0.0000033900    0.0000008600    0.0024215200
  -0.0002002800   -0.0004580700    0.0019769400
   0.0002152900   -0.0001263200    0.0024301700
   0.0002153900    0.0001263500    0.0024150100
  -0.0001990200    0.0004500600    0.0028654200
  -0.0000554800   -0.0000004300    0.0024219100
   0.0000104500    0.0000099700    0.0024297200
   0.0000548500   -0.0000001700    0.0024223900
   0.0000105600   -0.0000105600    0.0024149200
  -0.0000254600   -0.0000221300    0.0024166200
  -0.0000253200    0.0000215600    0.0024277000
   0.0000266700    0.0000122000    0.0024331000
   0.0000268900   -0.0000121600    0.0024106900
   0.0000026000   -0.0000299100    0.0024029400
   0.0000060900   -0.0000000800    0.0024217900
   0.0000028900    0.0000299300    0.0024411400
   0.0000058300    0.0000001300    0.0024222900
  -0.0000355000   -0.0000254400    0.0024236200
   0.0000990800   -0.0000540300    0.0024205300
   0.0000994700    0.0000535700    0.0024238800
  -0.0000349700    0.0000252200    0.0024202500
  -0.0000557100   -0.0000002800    0.0024221000
   0.0000105100   -0.0000013100    0.0023218300
   0.0000548100   -0.0000001700    0.0024222600
   0.0000107500    0.0000008000    0.0025226900
  -0.0000352000   -0.0000163100    0.0024570800
  -0.0000351200    0.0000161000    0.0023868900
   0.0000995200    0.0000538300    0.0022275900
   0.0000992200   -0.0000537600    0.0026160700
   0.0000028600   -0.0000300100    0.0024215500
   0.0000056600    0.0000000900    0.0024218500
   0.0000028300    0.0000299400    0.0024229700
   0.0000061900    0.0000003200    0.0024230400
  -0.0000255500   -0.0000312600    0.0023572100
   0.0000267500   -0.0000124200    0.0024006400
   0.0000267300    0.0000118700    0.0024435200
  -0.0000253600    0.0000308300    0.0024875500
   0.0004623600   -0.0002927800   -0.0017595800
   0.0000649400   -0.0000050300   -0.0023889300
   0.0000648600    0.0000049400   -0.0024551000
   0.0004566700    0.0002873900   -0.0030719500
  -0.0000428600   -0.0000009900   -0.0024223900
  -0.0000057500   -0.0000012400   -0.0023788100
   0.0000352200    0.0000002300   -0.0024221900
  -0.0000053100    0.0000016900   -0.0024656700
  -0.0000040200   -0.0000346200   -0.0024726800
  -0.0000040300    0.0000350800   -0.0023714400
   0.0000135800    0.0000126700   -0.0023999700
   0.0000138400   -0.0000120300   -0.0024436900
   0.0000043000   -0.0000396600   -0.0024395400
   0.0000022700   -0.0000000400   -0.0024219700
   0.0000046900    0.0000398400   -0.0024048900
  -0.0000028500    0.0000000700   -0.0024222700
  -0.0000376800   -0.0000224300   -0.0024318900
   0.0000424600   -0.0000372500   -0.0024434200
   0.0000426400    0.0000370800   -0.0024010700
  -0.0000373100    0.0000221200   -0.0024125500
  -0.0000760900    0.0000000600   -0.0024224600
  -0.0000111800    0.0000028600   -0.0024269200
   0.0001256900    0.0000005400   -0.0024217900
  -0.0000112700   -0.0000023800   -0.0024176000
  -0.0000548400   -0.0000186200   -0.0024231100
  -0.0000546700    0.0000192700   -0.0024216300
   0.0000776500    0.0000280300   -0.0023997100
   0.0000777200   -0.0000274300   -0.0024441500
   0.0000094900   -0.0000561700   -0.0024442800
   0.0000065300    0.0000000800   -0.0024222900
   0.0000098800    0.0000562300   -0.0023999600
  -0.0000158700    0.0000001100   -0.0024219900
  -0.0000025100   -0.0011435000   -0.0028542300
   0.0001739400   -0.0001539500   -0.0024134900
   0.0001745900    0.0001525900   -0.0024312000
  -0.0000000400    0.0011349300   -0.0019970800
  -0.0019745700   -0.0000003400   -0.0024204400
   0.0044119300    0.0023975000   -0.0041909100
   0.0009560900    0.0000015100   -0.0024220900
   0.0043848400   -0.0023833800   -0.0006641700
  -0.0002239600   -0.0000761600   -0.0024688900
  -0.0002237000    0.0000769900   -0.0023747000
   0.0003904100    0.0003290800   -0.0023680800
   0.0003893300   -0.0003248100   -0.0024758000
   0.0000410400   -0.0002301600   -0.0024605400
  -0.0000288800   -0.0000000700   -0.0024219600
   0.0000422300    0.0002296400   -0.0023839500
   0.0002581500    0.0000205300   -0.0024151900
   0.0023523000    0.0000026500    0.0000011100
  -0.0004432400    0.0007422800   -0.0000105200
  -0.0004145400    0.0000008900    0.0000005900
  -0.0004464400   -0.0007384200    0.0000114600
   0.0055187500   -0.0018119500    0.0034958900
   0.0057035700    0.0019515500   -0.0036913100
  -0.0017650200    0.0003781800   -0.0004920300
  -0.0017598900   -0.0003763300    0.0004908500
  -0.0001923200    0.0014609700    0.0006067500
   0.0008380900   -0.0000014200   -0.0000001700
  -0.0001931000   -0.0014688000   -0.0006103300
  -0.0005645800   -0.0000027000   -0.0000001500
  -0.0000306100    0.0004349400    0.0001204700
   0.0000240900    0.0002528800   -0.0000401800
   0.0000233600   -0.0002533600    0.0000405200
  -0.0000399600   -0.0004416400   -0.0001139400
   0.0001969800   -0.0000004200    0.0000007500
  -0.0001607500    0.0001276100   -0.0000712200
  -0.0001339900   -0.0000002500   -0.0000004900
  -0.0001608300   -0.0001278600    0.0000713300
   0.0000935400    0.0000605100    0.0000653600
   0.0000933300   -0.0000590200   -0.0000648300
  -0.0000886900   -0.0000096800   -0.0000506100
  -0.0000884000    0.0000095200    0.0000501100
  -0.0000149100    0.0000474400    0.0000650500
   0.0000610600    0.0000005300    0.0000003000
  -0.0000147600   -0.0000473500   -0.0000649400
  -0.0000627400   -0.0000004500   -0.0000007300
  -0.0000018900    0.0000447700    0.0000145000
  -0.0000034900    0.0000754500    0.0000262700
  -0.0000036700   -0.0000756000   -0.0000262200
  -0.0000027300   -0.0000452900   -0.0000148200
   0.0001338900    0.0000004100   -0.0000001000
  -0.0000196800    0.0001103900    0.0000990500
  -0.0000976900    0.0000004000    0.0000003900
  -0.0000198200   -0.0001087300   -0.0000993400
   0.0001410900   -0.0000039000   -0.0000923500
   0.0001412100    0.0000044200    0.0000929000
  -0.0001472000    0.0000632300    0.0001502200
  -0.0001469200   -0.0000623700   -0.0001486900
   0.0000531700    0.0001209300   -0.0001286200
   0.0001703300   -0.0000001200    0.0000000200
   0.0000536700   -0.0001218300    0.0001295000
  -0.0003504300   -0.0000010900    0.0000002300
   0.0000040100    0.0000815700    0.0000196600
  -0.0000115500    0.0000494300   -0.0000032500
  -0.0000118700   -0.0000500500    0.0000033700
   0.0000039200   -0.0000822800   -0.0000205500

1    
  0.0000000000000000   0.0000000000000000   0.0100000000000000
   0.0000000000    0.0000000000   -0.0275712200
   0.0002308100    0.0003785500    0.0017661600
   0.0000000000    0.0001395900    0.0022622200
  -0.0002308100    0.0003785500    0.0017661600
  -0.0004432400    0.0000106100    0.0017661600
   0.0004432400    0.0000106100    0.0017661600
  -0.0000077200   -0.0000044600    0.0023691900
   0.0000077200   -0.0000044600    0.0023691900
  -0.0001208900   -0.0000697900    0.0022622200
   0.0000000000   -0.0000285500    0.0023680500
   0.0001208900   -0.0000697900    0.0022622200
   0.0000000000    0.0000089200    0.0023691900
  -0.0002124300   -0.0003891600    0.0017661600
  -0.0000247200    0.0000142700    0.0023680500
   0.0000247200    0.0000142700    0.0023680500
   0.0002124300   -0.0003891600    0.0017661600
   0.0000000000    0.0000000000    0.0024647400
   0.0001014100    0.0000174200    0.0024796900
   0.0000000000    0.0000003900    0.0024420900
  -0.0001014100    0.0000174200    0.0024796900
  -0.0000657900    0.0000791100    0.0024796900
   0.0000657900    0.0000791100    0.0024796900
   0.0000216300    0.0000124900    0.0024439600
  -0.0000216300    0.0000124900    0.0024439600
  -0.0000003400   -0.0000002000    0.0024420900
   0.0000000000    0.0002264800    0.0025026900
   0.0000003400   -0.0000002000    0.0024420900
   0.0000000000   -0.0000249700    0.0024439600
   0.0000356200   -0.0000965400    0.0024796900
   0.0001961400   -0.0001132400    0.0025026900
  -0.0001961400   -0.0001132400    0.0025026900
  -0.0000356200   -0.0000965400    0.0024796900
   0.0000000000    0.0000000000    0.0024667900
  -0.0000070600    0.0000027600    0.0024810700
   0.0000000000    0.0000230200    0.0024415300
   0.0000070600    0.0000027600    0.0024810700
   0.0000011400   -0.0000074900    0.0024810700
  -0.0000011400   -0.0000074900    0.0024810700
   0.0000022200    0.0000012800    0.0025015300
  -0.0000022200    0.0000012800    0.0025015300
  -0.0000199400   -0.0000115100    0.0024415300
   0.0000000000   -0.0000133700    0.0024442600
   0.0000199400   -0.0000115100    0.0024415300
   0.0000000000   -0.0000025600    0.0025015300
  -0.0000059200    0.0000047300    0.0024810700
  -0.0000115800    0.0000066800    0.0024442600
   0.0000115800    0.0000066800    0.0024442600
   0.0000059200    0.0000047300    0.0024810700
   0.0006657300   -0.0003843600   -0.0015472600
   0.0000334900    0.0000397800   -0.0024535500
  -0.0000334900    0.0000397800   -0.0024535500
  -0.0006657300   -0.0003843600   -0.0015472600
   0.0000000000    0.0007687200   -0.0015472600
   0.0000435000    0.0000251100   -0.0024084800
   0.0000000000    0.0000261100   -0.0024471900
  -0.0000435000    0.0000251100   -0.0024084800
  -0.0000512000    0.0000091100   -0.0024535500
   0.0000512000    0.0000091100   -0.0024535500
   0.0000226100   -0.0000130500   -0.0024471900
  -0.0000226100   -0.0000130500   -0.0024471900
  -0.0000177100   -0.0000488900   -0.0024535500
   0.0000000000    0.0000000000   -0.0024472900
   0.0000177100   -0.0000488900   -0.0024535500
   0.0000000000   -0.0000502200   -0.0024084800
  -0.0000094100    0.0000054300   -0.0023757500
  -0.0000212300    0.0000128800   -0.0023706400
   0.0000212300    0.0000128800   -0.0023706400
   0.0000094100    0.0000054300   -0.0023757500
   0.0000000000   -0.0000108600   -0.0023757500
  -0.0000057900   -0.0000033400   -0.0023746900
   0.0000000000    0.0000252300   -0.0023584600
   0.0000057900   -0.0000033400   -0.0023746900
  -0.0000005400   -0.0000248300   -0.0023706400
   0.0000005400   -0.0000248300   -0.0023706400
   0.0000218500   -0.0000126100   -0.0023584600
  -0.0000218500   -0.0000126100   -0.0023584600
  -0.0000217700    0.0000119500   -0.0023706400
   0.0000000000    0.0000000000   -0.0023637900
   0.0000217700    0.0000119500   -0.0023706400
   0.0000000000    0.0000066900   -0.0023746900
  -0.0004240200    0.0002448100   -0.0021218300
   0.0000086900    0.0000494200   -0.0024822500
  -0.0000086900    0.0000494200   -0.0024822500
   0.0004240200    0.0002448100   -0.0021218300
   0.0000000000   -0.0004896200   -0.0021218300
  -0.0017657900   -0.0010194800   -0.0013839900
   0.0000000000    0.0000619300   -0.0025206400
   0.0017657900   -0.0010194800   -0.0013839900
  -0.0000471400   -0.0000171900   -0.0024822500
   0.0000471400   -0.0000171900   -0.0024822500
   0.0000536400   -0.0000309700   -0.0025206400
  -0.0000536400   -0.0000309700   -0.0025206400
  -0.0000384500   -0.0000322300   -0.0024822500
   0.0000000000    0.0000000000   -0.0024259400
   0.0000384500   -0.0000322300   -0.0024822500
   0.0000000000    0.0020389600   -0.0013839900
   0.0000000000    0.0085147700    0.0082320200
   0.0000249100   -0.0000143800    0.0004105800
   0.0000000000   -0.0000459700    0.0000406100
  -0.0000249100   -0.0000143800    0.0004105800
   0.0073740100   -0.0042573800    0.0082320200
  -0.0073740100   -0.0042573800    0.0082320200
   0.0002452500   -0.0004120900    0.0005584300
  -0.0002452500   -0.0004120900    0.0005584300
   0.0002342500    0.0004184400    0.0005584300
   0.0000000000    0.0000287600    0.0004105800
  -0.0002342500    0.0004184400    0.0005584300
   0.0000000000    0.0000000000    0.0000755700
   0.0004795000   -0.0000063500    0.0005584300
   0.0000398100    0.0000229900    0.0000406100
  -0.0000398100    0.0000229900    0.0000406100
  -0.0004795000   -0.0000063500    0.0005584300
   0.0000000000    0.0002116800   -0.0002448800
  -0.0004564400    0.0002635300   -0.0001920300
   0.0000000000   -0.0000426900    0.0000612300
   0.0004564400    0.0002635300   -0.0001920300
   0.0001833200   -0.0001058400   -0.0002448800
  -0.0001833200   -0.0001058400   -0.0002448800
  -0.0000969100   -0.0000473900   -0.0000085700
   0.0000969100   -0.0000473900   -0.0000085700
   0.0000894900   -0.0000602300   -0.0000085700
   0.0000000000   -0.0005270600   -0.0001920300
  -0.0000894900   -0.0000602300   -0.0000085700
   0.0000000000    0.0000000000   -0.0000016200
  -0.0000074100    0.0001076200   -0.0000085700
   0.0000369700    0.0000213400    0.0000612300
  -0.0000369700    0.0000213400    0.0000612300
   0.0000074100    0.0001076200   -0.0000085700
   0.0000000000    0.0000086500   -0.0001218800
   0.0000542400   -0.0000313200   -0.0001096600
   0.0000000000   -0.0000412600   -0.0000598600
  -0.0000542400   -0.0000313200   -0.0001096600
   0.0000074900   -0.0000043200   -0.0001218800
  -0.0000074900   -0.0000043200   -0.0001218800
   0.0000244400   -0.0000563600   -0.0001034500
  -0.0000244400   -0.0000563600   -0.0001034500
   0.0000365900    0.0000493500   -0.0001034500
   0.0000000000    0.0000626300   -0.0001096600
  -0.0000365900    0.0000493500   -0.0001034500
   0.0000000000    0.0000000000   -0.0001586000
   0.0000610300    0.0000070100   -0.0001034500
   0.0000357300    0.0000206300   -0.0000598600
  -0.0000357300    0.0000206300   -0.0000598600
  -0.0000610300    0.0000070100   -0.0001034500

1    
  0.0000000000000000   0.0000000000000000  -0.0100000000000000
   0.0000000000    0.0000000000    0.0326546000
  -0.0002321100   -0.0003797000    0.0030813100
   0.0000000000   -0.0001402100    0.0025860600
   0.0002321100   -0.0003797000    0.0030813100
   0.0004448900   -0.0000111600    0.0030813100
  -0.0004448900   -0.0000111600    0.0030813100
   0.0000074400    0.0000043000    0.0024767100
  -0.0000074400    0.0000043000    0.0024767100
   0.0001214300    0.0000701100    0.0025860600
   0.0000000000    0.0000271900    0.0024769800
  -0.0001214300    0.0000701100    0.0025860600
   0.0000000000   -0.0000086000    0.0024767100
   0.0002127800    0.0003908700    0.0030813100
   0.0000235500   -0.0000136000    0.0024769800
  -0.0000235500   -0.0000136000    0.0024769800
  -0.0002127800    0.0003908700    0.0030813100
   0.0000000000    0.0000000000    0.0023810800
  -0.0000990100   -0.0000168800    0.0023666200
   0.0000000000   -0.0000006600    0.0024027800
   0.0000990100   -0.0000168800    0.0023666200
   0.0000641200   -0.0000773000    0.0023666200
  -0.0000641200   -0.0000773000    0.0023666200
  -0.0000212600   -0.0000122700    0.0024041300
   0.0000212600   -0.0000122700    0.0024041300
   0.0000005700    0.0000003300    0.0024027800
   0.0000000000   -0.0002221200    0.0023466300
  -0.0000005700    0.0000003300    0.0024027800
   0.0000000000    0.0000245500    0.0024041300
  -0.0000348900    0.0000941800    0.0023666200
  -0.0001923600    0.0001110600    0.0023466300
   0.0001923600    0.0001110600    0.0023466300
   0.0000348900    0.0000941800    0.0023666200
   0.0000000000    0.0000000000    0.0023805800
   0.0000078100   -0.0000016600    0.0023660300
   0.0000000000   -0.0000214200    0.0024030800
  -0.0000078100   -0.0000016600    0.0023660300
  -0.0000024700    0.0000075900    0.0023660300
   0.0000024700    0.0000075900    0.0023660300
  -0.0000019200   -0.0000011100    0.0023466800
   0.0000019200   -0.0000011100    0.0023466800
   0.0000185500    0.0000107100    0.0024030800
   0.0000000000    0.0000126200    0.0024039500
  -0.0000185500    0.0000107100    0.0024030800
   0.0000000000    0.0000022100    0.0023466800
   0.0000053400   -0.0000059300    0.0023660300
   0.0000109300   -0.0000063100    0.0024039500
  -0.0000109300   -0.0000063100    0.0024039500
  -0.0000053400   -0.0000059300    0.0023660300
  -0.0006462000    0.0003730900   -0.0032737900
  -0.0000328300   -0.0000392100   -0.0023929600
   0.0000328300   -0.0000392100   -0.0023929600
   0.0006462000    0.0003730900   -0.0032737900
   0.0000000000   -0.0007461700   -0.0032737900
  -0.0000428400   -0.0000247300   -0.0024363400
   0.0000000000   -0.0000253500   -0.0024000600
   0.0000428400   -0.0000247300   -0.0024363400
   0.0000503700   -0.0000088300   -0.0023929600
  -0.0000503700   -0.0000088300   -0.0023929600
  -0.0000219600    0.0000126800   -0.0024000600
   0.0000219600    0.0000126800   -0.0024000600
   0.0000175400    0.0000480400   -0.0023929600
   0.0000000000    0.0000000000   -0.0024010100
  -0.0000175400    0.0000480400   -0.0023929600
   0.0000000000    0.0000494600   -0.0024363400
   0.0000097700   -0.0000056400   -0.0024699400
   0.0000218500   -0.0000133900   -0.0024734700
  -0.0000218500   -0.0000133900   -0.0024734700
  -0.0000097700   -0.0000056400   -0.0024699400
   0.0000000000    0.0000112900   -0.0024699400
   0.0000047200    0.0000027200   -0.0024717600
   0.0000000000   -0.0000260300   -0.0024885700
  -0.0000047200    0.0000027200   -0.0024717600
   0.0000006700    0.0000256200   -0.0024734700
  -0.0000006700    0.0000256200   -0.0024734700
  -0.0000225500    0.0000130200   -0.0024885700
   0.0000225500    0.0000130200   -0.0024885700
   0.0000225200   -0.0000122300   -0.0024734700
   0.0000000000    0.0000000000   -0.0024778500
  -0.0000225200   -0.0000122300   -0.0024734700
   0.0000000000   -0.0000054500   -0.0024717600
   0.0004326600   -0.0002498000   -0.0027419400
  -0.0000090400   -0.0000489800   -0.0023632000
   0.0000090400   -0.0000489800   -0.0023632000
  -0.0004326600   -0.0002498000   -0.0027419400
   0.0000000000    0.0004995900   -0.0027419400
   0.0017596100    0.0010159100   -0.0034612800
   0.0000000000   -0.0000623600   -0.0023252600
  -0.0017596100    0.0010159100   -0.0034612800
   0.0000469300    0.0000166600   -0.0023632000
  -0.0000469300    0.0000166600   -0.0023632000
  -0.0000540100    0.0000311800   -0.0023252600
   0.0000540100    0.0000311800   -0.0023252600
   0.0000379000    0.0000323100   -0.0023632000
   0.0000000000    0.0000000000   -0.0024202100
  -0.0000379000    0.0000323100   -0.0023632000
   0.0000000000   -0.0020318200   -0.0034612800
   0.0000000000   -0.0087501300   -0.0083217400
  -0.0000190200    0.0000109800   -0.0004099000
   0.0000000000    0.0000466400   -0.0000397400
   0.0000190200    0.0000109800   -0.0004099000
  -0.0075778300    0.0043750600   -0.0083217400
   0.0075778300    0.0043750600   -0.0083217400
  -0.0002444500    0.0004125700   -0.0005595900
   0.0002444500    0.0004125700   -0.0005595900
  -0.0002350700   -0.0004179900   -0.0005595900
   0.0000000000   -0.0000219600   -0.0004099000
   0.0002350700   -0.0004179900   -0.0005595900
   0.0000000000    0.0000000000   -0.0000770600
  -0.0004795200    0.0000054100   -0.0005595900
  -0.0000403900   -0.0000233200   -0.0000397400
   0.0000403900   -0.0000233200   -0.0000397400
   0.0004795200    0.0000054100   -0.0005595900
   0.0000000000   -0.0002091200    0.0002411500
   0.0004481500   -0.0002587400    0.0001893100
   0.0000000000    0.0000418800   -0.0000597000
  -0.0004481500   -0.0002587400    0.0001893100
  -0.0001811100    0.0001045600    0.0002411500
   0.0001811100    0.0001045600    0.0002411500
   0.0000958100    0.0000453700    0.0000093700
  -0.0000958100    0.0000453700    0.0000093700
  -0.0000872000    0.0000602900    0.0000093700
   0.0000000000    0.0005174800    0.0001893100
   0.0000872000    0.0000602900    0.0000093700
   0.0000000000    0.0000000000    0.0000006800
   0.0000086100   -0.0001056600    0.0000093700
  -0.0000362700   -0.0000209400   -0.0000597000
   0.0000362700   -0.0000209400   -0.0000597000
  -0.0000086100   -0.0001056600    0.0000093700
   0.0000000000   -0.0000087400    0.0001196400
  -0.0000558500    0.0000322500    0.0001051300
   0.0000000000    0.0000419100    0.0000545900
   0.0000558500    0.0000322500    0.0001051300
  -0.0000075700    0.0000043700    0.0001196400
   0.0000075700    0.0000043700    0.0001196400
  -0.0000237900    0.0000557000    0.0001039500
   0.0000237900    0.0000557000    0.0001039500
  -0.0000363400   -0.0000484600    0.0001039500
   0.0000000000   -0.0000645000    0.0001051300
   0.0000363400   -0.0000484600    0.0001039500
   0.0000000000    0.0000000000    0.0001604800
  -0.0000601300   -0.0000072400    0.0001039500
  -0.0000363000   -0.0000209600    0.0000545900
   0.0000363000   -0.0000209600    0.0000545900
   0.0000601300   -0.0000072400    0.0001039500

97   
  0.0100000000000000   0.0000000000000000   0.0000000000000000
   0.0023515600   -0.0000126700    0.0024069100
  -0.0004461100   -0.0007425400    0.0024003300
  -0.0004156800   -0.0000003400    0.0024223000
  -0.0004435000    0.0007384300    0.0024440800
  -0.0000356000    0.0013723400    0.0029029600
  -0.0000355600   -0.0013752000    0.0019417100
   0.0000228200   -0.0002537900    0.0023830700
   0.0000229000    0.0002527500    0.0024633300
  -0.0001908800    0.0005274400    0.0026585600
  -0.0005652000    0.0000000100    0.0024226400
  -0.0001946600   -0.0005302300    0.0021895700
   0.0008377800    0.0000008500    0.0024220500
   0.0057251700   -0.0019527700    0.0099977100
  -0.0017630100    0.0005599300    0.0021772000
  -0.0017610900   -0.0005574100    0.0026672600
   0.0054966200    0.0018109600   -0.0049474400
   0.0001342500   -0.0000004800    0.0024232000
  -0.0000196900   -0.0001095100    0.0023679500
  -0.0000978600   -0.0000003100    0.0024238600
  -0.0000199600    0.0001091400    0.0024793500
   0.0000035600    0.0001501700    0.0024840200
   0.0000039200   -0.0001505800    0.0023630200
  -0.0000118900   -0.0000499200    0.0023867900
  -0.0000114000    0.0000497900    0.0024593500
   0.0000534400    0.0000529800    0.0024601700
  -0.0003507200    0.0000000800    0.0024225900
   0.0000541900   -0.0000531700    0.0023867700
   0.0001694300    0.0000000100    0.0024241900
   0.0001408900   -0.0000040000    0.0024310000
  -0.0001472700    0.0000051800    0.0023998800
  -0.0001475100   -0.0000054000    0.0024475700
   0.0001413500    0.0000036900    0.0024156400
   0.0001953700   -0.0000008500    0.0024251300
  -0.0001615300   -0.0001278500    0.0028749300
  -0.0001337000   -0.0000002700    0.0024241700
  -0.0001608600    0.0001277000    0.0019724800
  -0.0000029300    0.0000398400    0.0024149800
  -0.0000024300   -0.0000403500    0.0024299400
  -0.0000039200   -0.0000748300    0.0023872600
  -0.0000039100    0.0000748200    0.0024592300
  -0.0000151900    0.0000518900    0.0025111300
  -0.0000646500    0.0000002200    0.0024233400
  -0.0000151200   -0.0000524000    0.0023356500
   0.0000597800   -0.0000004700    0.0024224300
   0.0000929200    0.0000595500    0.0026057100
  -0.0000889000    0.0000049600    0.0025190100
  -0.0000888800   -0.0000047700    0.0023269200
   0.0000932100   -0.0000588300    0.0022424600
   0.0000929200   -0.0000595500   -0.0026057100
  -0.0000889000   -0.0000049600   -0.0025190100
  -0.0000888800    0.0000047700   -0.0023269200
   0.0000932100    0.0000588300   -0.0022424600
   0.0000597800    0.0000004700   -0.0024224300
  -0.0000151900   -0.0000518900   -0.0025111300
  -0.0000646500   -0.0000002200   -0.0024233400
  -0.0000151200    0.0000524000   -0.0023356500
  -0.0000039200    0.0000748300   -0.0023872600
  -0.0000039100   -0.0000748200   -0.0024592300
  -0.0000029300   -0.0000398400   -0.0024149800
  -0.0000024300    0.0000403500   -0.0024299400
  -0.0001615300    0.0001278500   -0.0028749300
  -0.0001337000    0.0000002700   -0.0024241700
  -0.0001608600   -0.0001277000   -0.0019724800
   0.0001953700    0.0000008500   -0.0024251300
   0.0001408900    0.0000040000   -0.0024310000
  -0.0001472700   -0.0000051800   -0.0023998800
  -0.0001475100    0.0000054000   -0.0024475700
   0.0001413500   -0.0000036900   -0.0024156400
   0.0001694300   -0.0000000100   -0.0024241900
   0.0000534400   -0.0000529800   -0.0024601700
  -0.0003507200   -0.0000000800   -0.0024225900
   0.0000541900    0.0000531700   -0.0023867700
  -0.0000118900    0.0000499200   -0.0023867900
  -0.0000114000   -0.0000497900   -0.0024593500
   0.0000035600   -0.0001501700   -0.0024840200
   0.0000039200    0.0001505800   -0.0023630200
  -0.0000196900    0.0001095100   -0.0023679500
  -0.0000978600    0.0000003100   -0.0024238600
  -0.0000199600   -0.0001091400   -0.0024793500
   0.0001342500    0.0000004800   -0.0024232000
   0.0057251700    0.0019527700   -0.0099977100
  -0.0017630100   -0.0005599300   -0.0021772000
  -0.0017610900    0.0005574100   -0.0026672600
   0.0054966200   -0.0018109600    0.0049474400
   0.0008377800   -0.0000008500   -0.0024220500
  -0.0001908800   -0.0005274400   -0.0026585600
  -0.0005652000   -0.0000000100   -0.0024226400
  -0.0001946600    0.0005302300   -0.0021895700
   0.0000228200    0.0002537900   -0.0023830700
   0.0000229000   -0.0002527500   -0.0024633300
  -0.0000356000   -0.0013723400   -0.0029029600
  -0.0000355600    0.0013752000   -0.0019417100
  -0.0004461100    0.0007425400   -0.0024003300
  -0.0004156800    0.0000003400   -0.0024223000
  -0.0004435000   -0.0007384300   -0.0024440800
   0.0023515600    0.0000126700   -0.0024069100
  -0.0346916500    0.0000000000    0.0000000000
   0.0074865500    0.0000000000    0.0000000000
   0.0023618600    0.0000000000    0.0000000000
   0.0074429100    0.0000000000    0.0000000000
  -0.0008599400   -0.0048073000   -0.0025904600
  -0.0008725000    0.0048118100    0.0025998200
   0.0010383500    0.0007904200    0.0000057600
   0.0010385700   -0.0007882600   -0.0000077700
   0.0003299200   -0.0011727200    0.0000717500
  -0.0003282200   -0.0000000900    0.0000008800
   0.0003299200    0.0011727200   -0.0000717500
  -0.0003282200    0.0000000900   -0.0000008800
  -0.0008725000   -0.0048118100   -0.0025998200
   0.0010383500   -0.0007904200   -0.0000057600
   0.0010385700    0.0007882600    0.0000077700
  -0.0008599400    0.0048073000    0.0025904600
  -0.0005167600    0.0000003900    0.0000002400
   0.0000783500    0.0001628800    0.0003831100
   0.0003461700   -0.0000009600   -0.0000001200
   0.0000790200   -0.0001646800   -0.0003832600
  -0.0001493100   -0.0002945700   -0.0002029900
  -0.0001509100    0.0002969500    0.0002023700
   0.0001632400    0.0001024900    0.0000936000
   0.0001636500   -0.0001016600   -0.0000927300
   0.0000423400   -0.0001755900   -0.0000186800
  -0.0000501600   -0.0000009100   -0.0000000400
   0.0000415500    0.0001760500    0.0000192300
  -0.0000132500   -0.0000001400    0.0000001600
  -0.0004326300   -0.0001326700    0.0001812800
   0.0004937400   -0.0003138300    0.0002607100
   0.0004946300    0.0003139400   -0.0002607500
  -0.0004352600    0.0001318500   -0.0001798300
  -0.0005167600   -0.0000003900   -0.0000002400
   0.0000783500   -0.0001628800   -0.0003831100
   0.0003461700    0.0000009600    0.0000001200
   0.0000790200    0.0001646800    0.0003832600
  -0.0004352600   -0.0001318500    0.0001798300
  -0.0004326300    0.0001326700   -0.0001812800
   0.0004937400    0.0003138300   -0.0002607100
   0.0004946300   -0.0003139400    0.0002607500
   0.0000415500   -0.0001760500   -0.0000192300
  -0.0000132500    0.0000001400   -0.0000001600
   0.0000423400    0.0001755900    0.0000186800
  -0.0000501600    0.0000009100    0.0000000400
  -0.0001509100   -0.0002969500   -0.0002023700
   0.0001632400   -0.0001024900   -0.0000936000
   0.0001636500    0.0001016600    0.0000927300
  -0.0001493100    0.0002945700    0.0002029900

97   
  0.0000000000000000   0.0000000000000000   0.0100000000000000
   0.0000000000    0.0042456900    0.0107574300
   0.0000122000    0.0000070400    0.0028341200
   0.0000000000    0.0000467300    0.0024659000
  -0.0000122000    0.0000070400    0.0028341200
   0.0001167700    0.0006350400    0.0029841700
  -0.0001167700    0.0006350400    0.0029841700
   0.0000404700   -0.0000233600    0.0024659000
  -0.0000404700   -0.0000233600    0.0024659000
   0.0006083500   -0.0002163900    0.0029841700
   0.0000000000    0.0000000000    0.0025025200
  -0.0006083500   -0.0002163900    0.0029841700
   0.0000000000   -0.0000140800    0.0028341200
   0.0036768700   -0.0021228400    0.0107574300
   0.0004915800   -0.0004186500    0.0029841700
  -0.0004915800   -0.0004186500    0.0029841700
  -0.0036768700   -0.0021228400    0.0107574300
   0.0000000000   -0.0001065500    0.0023024600
  -0.0000996600   -0.0000575400    0.0023171800
   0.0000000000    0.0000031700    0.0023674600
   0.0000996600   -0.0000575400    0.0023171800
   0.0000202600   -0.0001604100    0.0023213900
  -0.0000202600   -0.0001604100    0.0023213900
   0.0000027500   -0.0000015900    0.0023674600
  -0.0000027500   -0.0000015900    0.0023674600
  -0.0001287900    0.0000977500    0.0023213900
   0.0000000000    0.0000000000    0.0022636100
   0.0001287900    0.0000977500    0.0023213900
   0.0000000000    0.0001150700    0.0023171800
  -0.0000922800    0.0000532800    0.0023024600
  -0.0001490500    0.0000626600    0.0023213900
   0.0001490500    0.0000626600    0.0023213900
   0.0000922800    0.0000532800    0.0023024600
   0.0000000000    0.0000738700    0.0021822900
   0.0000715800    0.0000413300    0.0022319100
   0.0000000000   -0.0000305800    0.0024847700
  -0.0000715800    0.0000413300    0.0022319100
   0.0000142700    0.0000664200    0.0024144300
  -0.0000142700    0.0000664200    0.0024144300
  -0.0000264800    0.0000152900    0.0024847700
   0.0000264800    0.0000152900    0.0024847700
   0.0000646500   -0.0000208500    0.0024144300