108  
8    

1    
  0.0100000000000000   0.0000000000000000   0.0000000000000000
  -0.0320949300    0.0000000000   -0.0002923500
   0.0009213500    0.0000000000   -0.0002617700
   0.0009241100    0.0000000000    0.0002579100
  -0.0003617800   -0.0000043900   -0.0000013200
   0.0002093500    0.0001926800   -0.0000000400
   0.0002146500   -0.0001966900   -0.0000008300
  -0.0003617800    0.0000043900   -0.0000013200
   0.0002093500   -0.0001926800   -0.0000000400
   0.0002146500    0.0001966900   -0.0000008300
  -0.0000653100    0.0000000000   -0.0000000600
   0.0000322400    0.0000000000   -0.0000150700
   0.0000379500    0.0000000000    0.0000158400
  -0.0000330600   -0.0000028600   -0.0000000600
   0.0000145000    0.0000154000   -0.0000175300
   0.0000195300   -0.0000199100    0.0000175600
  -0.0000330600    0.0000028600   -0.0000000600
   0.0000145000   -0.0000154000   -0.0000175300
   0.0000195300    0.0000199100    0.0000175600
   0.0008102400    0.0017361900    0.0001315100
   0.0008134400   -0.0017481300   -0.0001325000
   0.0004105700   -0.0000033500   -0.0000004500
   0.0008102400   -0.0017361900    0.0001315100
   0.0008134400    0.0017481300   -0.0001325000
   0.0004105700    0.0000033500   -0.0000004500
  -0.0000773700    0.0000000000    0.0000439000
  -0.0000728100    0.0000000000   -0.0000449100
   0.0001536700    0.0000000000   -0.0000003700
  -0.0000239600    0.0000141600   -0.0000040200
  -0.0000195100   -0.0000190600    0.0000041100
   0.0000448100   -0.0000028000    0.0000004100
  -0.0000239600   -0.0000141600   -0.0000040200
  -0.0000195100    0.0000190600    0.0000041100
   0.0000448100    0.0000028000    0.0000004100
  -0.0000104700    0.0000000000   -0.0000033400
  -0.0000047700    0.0000000000    0.0000030300
   0.0000156400    0.0000000000   -0.0000001100
   0.0084729500    0.0000000000   -0.0042791800
   0.0088709700    0.0000000000    0.0031901500
  -0.0013421500    0.0000000000   -0.0006987300
   0.0003920200    0.0005550100   -0.0003435600
   0.0004194400   -0.0005753400   -0.0010468500
  -0.0006651200   -0.0000105700   -0.0006962400
   0.0003920200   -0.0005550100   -0.0003435600
   0.0004194400    0.0005753400   -0.0010468500
  -0.0006651200    0.0000105700   -0.0006962400
   0.0001029700    0.0000000000   -0.0009741600
   0.0001234700    0.0000000000   -0.0004212300
  -0.0002150000    0.0000000000   -0.0006986800
   0.0000714800    0.0000162200   -0.0007448800
   0.0000928300   -0.0000374000   -0.0006468500
  -0.0001674000   -0.0000101500   -0.0006980200
   0.0000714800   -0.0000162200   -0.0007448800
   0.0000928300    0.0000374000   -0.0006468500
  -0.0001674000    0.0000101500   -0.0006980200
   0.0000973600   -0.0000092400    0.0006975200
  -0.0000596900    0.0000095800    0.0006294300
  -0.0000388200   -0.0000307900    0.0007613300
   0.0000973600    0.0000092400    0.0006975200
  -0.0000596900   -0.0000095800    0.0006294300
  -0.0000388200    0.0000307900    0.0007613300
   0.0000564900    0.0000000000    0.0006993900
  -0.0000385400    0.0000000000    0.0006732600
  -0.0000205400    0.0000000000    0.0007189000
   0.0049383100    0.0000079300    0.0007154900
  -0.0009368800    0.0004318300    0.0010579200
  -0.0009187000   -0.0004530700    0.0003370000
   0.0049383100   -0.0000079300    0.0007154900
  -0.0009368800   -0.0004318300    0.0010579200
  -0.0009187000    0.0004530700    0.0003370000
   0.0003825500    0.0000000000    0.0006977200
  -0.0001927500    0.0000000000    0.0008044300
  -0.0001751000    0.0000000000    0.0005911100
  -0.0000538000    0.0000000000   -0.0009071400
  -0.0000416600    0.0000000000   -0.0007168100
   0.0001025000    0.0000000000   -0.0008152000
  -0.0000438200   -0.0000240000   -0.0008339000
  -0.0000253600    0.0000048100   -0.0007958600
   0.0000747300   -0.0000060000   -0.0008122000
  -0.0000438200    0.0000240000   -0.0008339000
  -0.0000253600   -0.0000048100   -0.0007958600
   0.0000747300    0.0000060000   -0.0008122000
   0.0013719000    0.0000000000    0.0016009900
   0.0013860800    0.0000000000   -0.0032472700
   0.0005542100    0.0000000000   -0.0008164600
  -0.0002521600   -0.0001594100   -0.0007247500
  -0.0002365800    0.0001393700   -0.0009038000
   0.0002283100   -0.0000067600   -0.0008132100
  -0.0002521600    0.0001594100   -0.0007247500
  -0.0002365800   -0.0001393700   -0.0009038000
   0.0002283100    0.0000067600   -0.0008132100
  -0.0009811300    0.0000015600    0.0008002900
   0.0006415400   -0.0005834000    0.0010139400
   0.0006596300    0.0005593500    0.0006146800
  -0.0009811300   -0.0000015600    0.0008002900
   0.0006415400    0.0005834000    0.0010139400
   0.0006596300   -0.0005593500    0.0006146800
  -0.0002568600    0.0000000000    0.0008150600
   0.0001167400    0.0000000000    0.0008424000
   0.0001308600    0.0000000000    0.0007833000
  -0.0001731800   -0.0000075200    0.0008136000
   0.0001123700   -0.0000951300    0.0007063500
   0.0001314300    0.0000762600    0.0009223100
  -0.0001731800    0.0000075200    0.0008136000
   0.0001123700    0.0000951300    0.0007063500
   0.0001314300   -0.0000762600    0.0009223100
  -0.0000890300    0.0000000000    0.0008146900
   0.0000303200    0.0000000000    0.0007897000
   0.0000453400    0.0000000000    0.0008378700

1    
  0.0000000000000000   0.0000000000000000   0.0100000000000000
   0.0000000000    0.0000000000   -0.0326831700
   0.0002564000    0.0000000000   -0.0006380000
  -0.0002564000    0.0000000000   -0.0006380000
   0.0000000000   -0.0002636100   -0.0006370500
  -0.0000030400   -0.0000025200   -0.0002187500
   0.0000030400   -0.0000025200   -0.0002187500
   0.0000000000    0.0002636100   -0.0006370500
  -0.0000030400    0.0000025200   -0.0002187500
   0.0000030400    0.0000025200   -0.0002187500
   0.0000000000    0.0000000000    0.0002126700
   0.0000126800    0.0000000000    0.0001709900
  -0.0000126800    0.0000000000    0.0001709900
   0.0000000000   -0.0000184500    0.0001710900
   0.0000152700   -0.0000197600    0.0001532900
  -0.0000152700   -0.0000197600    0.0001532900
   0.0000000000    0.0000184500    0.0001710900
   0.0000152700    0.0000197600    0.0001532900
  -0.0000152700    0.0000197600    0.0001532900
   0.0001364000   -0.0001283500   -0.0008704900
  -0.0001364000   -0.0001283500   -0.0008704900
   0.0000000000   -0.0000476100   -0.0002433600
   0.0001364000    0.0001283500   -0.0008704900
  -0.0001364000    0.0001283500   -0.0008704900
   0.0000000000    0.0000476100   -0.0002433600
   0.0000418300    0.0000000000   -0.0002433200
  -0.0000418300    0.0000000000   -0.0002433200
   0.0000000000    0.0000000000   -0.0001501700
  -0.0000062300    0.0000015400    0.0001893200
   0.0000062300    0.0000015400    0.0001893200
   0.0000000000    0.0000002100    0.0001557600
  -0.0000062300   -0.0000015400    0.0001893200
   0.0000062300   -0.0000015400    0.0001893200
   0.0000000000   -0.0000002100    0.0001557600
  -0.0000061100    0.0000000000    0.0001559700
   0.0000061100    0.0000000000    0.0001559700
   0.0000000000    0.0000000000    0.0001257800
  -0.0032361100    0.0000000000    0.0056995100
   0.0032361100    0.0000000000    0.0056995100
   0.0000000000    0.0000000000   -0.0003563800
   0.0003377600   -0.0005060800    0.0000641400
  -0.0003377600   -0.0005060800    0.0000641400
   0.0000000000   -0.0002065700   -0.0003532600
   0.0003377600    0.0005060800    0.0000641400
  -0.0003377600    0.0005060800    0.0000641400
   0.0000000000    0.0002065700   -0.0003532600
  -0.0000436400    0.0000000000   -0.0013480100
   0.0000436400    0.0000000000   -0.0013480100
   0.0000000000    0.0000000000   -0.0010101200
  -0.0000389100    0.0000966500   -0.0010371100
   0.0000389100    0.0000966500   -0.0010371100
   0.0000000000    0.0000899300   -0.0009487600
  -0.0000389100   -0.0000966500   -0.0010371100
   0.0000389100   -0.0000966500   -0.0010371100
   0.0000000000   -0.0000899300   -0.0009487600
   0.0000000000    0.0000229900    0.0000705300
  -0.0001173500    0.0000175500    0.0003811700
   0.0001173500    0.0000175500    0.0003811700
   0.0000000000   -0.0000229900    0.0000705300
  -0.0001173500   -0.0000175500    0.0003811700
   0.0001173500   -0.0000175500    0.0003811700
   0.0000000000    0.0000000000    0.0004139000
  -0.0001099700    0.0000000000    0.0004714200
   0.0001099700    0.0000000000    0.0004714200
   0.0000000000    0.0030437900    0.0070326400
   0.0004875900   -0.0003580300    0.0014753000
  -0.0004875900   -0.0003580300    0.0014753000
   0.0000000000   -0.0030437900    0.0070326400
   0.0004875900    0.0003580300    0.0014753000
  -0.0004875900    0.0003580300    0.0014753000
   0.0000000000    0.0000000000    0.0010632300
   0.0001869500    0.0000000000    0.0010658800
  -0.0001869500    0.0000000000    0.0010658800
  -0.0000915600    0.0000000000   -0.0005129300
   0.0000915600    0.0000000000   -0.0005129300
   0.0000000000    0.0000000000   -0.0006428600
  -0.0001135000    0.0000876100   -0.0005492500
   0.0001135000    0.0000876100   -0.0005492500
   0.0000000000    0.0000138100   -0.0006596600
  -0.0001135000   -0.0000876100   -0.0005492500
   0.0001135000   -0.0000876100   -0.0005492500
   0.0000000000   -0.0000138100   -0.0006596600
   0.0026528600    0.0000000000    0.0013715600
  -0.0026528600    0.0000000000    0.0013715600
   0.0000000000    0.0000000000   -0.0010197300
   0.0003548000   -0.0003347900   -0.0008855300
  -0.0003548000   -0.0003347900   -0.0008855300
   0.0000000000   -0.0000354100   -0.0008717400
   0.0003548000    0.0003347900   -0.0008855300
  -0.0003548000    0.0003347900   -0.0008855300
   0.0000000000    0.0000354100   -0.0008717400
   0.0000000000   -0.0026935500    0.0029608300
   0.0003151400   -0.0003742700    0.0006763100
  -0.0003151400   -0.0003742700    0.0006763100
   0.0000000000    0.0026935500    0.0029608300
   0.0003151400    0.0003742700    0.0006763100
  -0.0003151400    0.0003742700    0.0006763100
   0.0000000000    0.0000000000    0.0005447700
   0.0000217900    0.0000000000    0.0006876500
  -0.0000217900    0.0000000000    0.0006876500
   0.0000000000    0.0000788500    0.0010482500
  -0.0001068800    0.0000938700    0.0010129100
   0.0001068800    0.0000938700    0.0010129100
   0.0000000000   -0.0000788500    0.0010482500
  -0.0001068800   -0.0000938700    0.0010129100
   0.0001068800   -0.0000938700    0.0010129100
   0.0000000000    0.0000000000    0.0009212000
  -0.0000269100    0.0000000000    0.0009018300
   0.0000269100    0.0000000000    0.0009018300

37   
  0.0100000000000000   0.0000000000000000   0.0000000000000000
   0.0088606000    0.0000000000   -0.0032832400
  -0.0013210100    0.0000000000    0.0000020800
   0.0084632200    0.0000000000    0.0029993600
   0.0003915600   -0.0004463300    0.0003505900
  -0.0006440700   -0.0000017900    0.0000010000
   0.0003994400    0.0004399700   -0.0003470200
   0.0003915600    0.0004463300    0.0003505900
  -0.0006440700    0.0000017900    0.0000010000
   0.0003994400   -0.0004399700   -0.0003470200
   0.0000971500    0.0000000000   -0.0000336400
  -0.0001939500    0.0000000000   -0.0000005900
   0.0001085600    0.0000000000    0.0000325000
   0.0000664400   -0.0000231200   -0.0000297100
  -0.0001445200   -0.0000019000    0.0000001200
   0.0000756100    0.0000173000    0.0000289500
   0.0000664400    0.0000231200   -0.0000297100
  -0.0001445200    0.0000019000    0.0000001200
   0.0000756100   -0.0000173000    0.0000289500
   0.0049583900    0.0000119300    0.0000085100
  -0.0009320300    0.0005611100    0.0004983500
  -0.0009431500   -0.0005691900   -0.0004958200
   0.0049583900   -0.0000119300    0.0000085100
  -0.0009320300   -0.0005611100    0.0004983500
  -0.0009431500    0.0005691900   -0.0004958200
   0.0004013200    0.0000000000    0.0000009200
  -0.0001864400    0.0000000000    0.0001992000
  -0.0001997700    0.0000000000   -0.0001970500
   0.0001191700   -0.0000021500   -0.0000002700
  -0.0000550900    0.0000245100   -0.0001080900
  -0.0000649500   -0.0000310200    0.0001075000
   0.0001191700    0.0000021500   -0.0000002700
  -0.0000550900   -0.0000245100   -0.0001080900
  -0.0000649500    0.0000310200    0.0001075000
   0.0000783300    0.0000000000   -0.0000005300
  -0.0000344100    0.0000000000   -0.0001018700
  -0.0000462500    0.0000000000    0.0001021000
  -0.0643735200    0.0000000000   -0.0005648800
   0.0093662200    0.0000000000   -0.0009691200
   0.0092097600    0.0000000000   -0.0004540900
  -0.0039482200   -0.0000194200   -0.0007006500
   0.0020164100    0.0013412000   -0.0013896600
   0.0019761600   -0.0013620300   -0.0000115100
  -0.0039482200    0.0000194200   -0.0007006500
   0.0020164100   -0.0013412000   -0.0013896600
   0.0019761600    0.0013620300   -0.0000115100
  -0.0001527800    0.0000000000   -0.0006962300
   0.0000948600    0.0000000000   -0.0006903400
   0.0000651300    0.0000000000   -0.0007096100
  -0.0001538000   -0.0000139000   -0.0006955200
   0.0000977600   -0.0000106400   -0.0006342000
   0.0000566100   -0.0000055300   -0.0007648100
  -0.0001538000    0.0000139000   -0.0006955200
   0.0000977600    0.0000106400   -0.0006342000
   0.0000566100    0.0000055300   -0.0007648100
  -0.0003994800   -0.0000358200    0.0015786900
   0.0007549200   -0.0000138000    0.0006957200
  -0.0003529200    0.0000183900   -0.0001748800
  -0.0003994800    0.0000358200    0.0015786900
   0.0007549200    0.0000138000    0.0006957200
  -0.0003529200   -0.0000183900   -0.0001748800
  -0.0003616300    0.0000000000    0.0009308100
   0.0006925100    0.0000000000    0.0007011900
  -0.0003255300    0.0000000000    0.0004722100
   0.0004868800   -0.0036564700   -0.0036774200
   0.0015610100   -0.0000119300    0.0006947400
   0.0005277900    0.0036356700    0.0050510700
   0.0004868800    0.0036564700   -0.0036774200
   0.0015610100    0.0000119300    0.0006947400
   0.0005277900   -0.0036356700    0.0050510700
  -0.0003481600    0.0000000000    0.0002973700
   0.0006879900    0.0000000000    0.0006932200
  -0.0003122300    0.0000000000    0.0011047700
   0.0007819300    0.0000000000   -0.0008197300
  -0.0003824700    0.0000000000   -0.0013075800
  -0.0004087100    0.0000000000   -0.0003518200
   0.0005820600   -0.0000138500   -0.0008307700
  -0.0002947500   -0.0001992900   -0.0011844500
  -0.0003337900    0.0001859000   -0.0004648800
   0.0005820600    0.0000138500   -0.0008307700
  -0.0002947500    0.0001992900   -0.0011844500
  -0.0003337900   -0.0001859000   -0.0004648800
   0.0019801500    0.0000000000   -0.0008169600
  -0.0008765600    0.0000000000    0.0000044000
  -0.0009073600    0.0000000000   -0.0016576800
   0.0006141300   -0.0000116800   -0.0008307100
  -0.0002990400   -0.0002215300   -0.0006199800
  -0.0003384200    0.0002073400   -0.0010285800
   0.0006141300    0.0000116800   -0.0008307100
  -0.0002990400    0.0002215300   -0.0006199800
  -0.0003384200   -0.0002073400   -0.0010285800
   0.0053531200   -0.0024349400    0.0039235300
  -0.0015650100   -0.0000125700    0.0008279000
   0.0052350000    0.0022609100   -0.0021749300
   0.0053531200    0.0024349400    0.0039235300
  -0.0015650100    0.0000125700    0.0008279000
   0.0052350000   -0.0022609100   -0.0021749300
   0.0002862700    0.0000000000    0.0010517500
  -0.0006555600    0.0000000000    0.0008250400
   0.0003138200    0.0000000000    0.0006020700
   0.0000753300   -0.0000114100    0.0008336400
  -0.0001906700   -0.0000132000    0.0008302000
   0.0001131800   -0.0000033600    0.0008134900
   0.0000753300    0.0000114100    0.0008336400
  -0.0001906700    0.0000132000    0.0008302000
   0.0001131800    0.0000033600    0.0008134900
   0.0000509000    0.0000000000    0.0008415400
  -0.0001317800    0.0000000000    0.0008204100
   0.0000773100    0.0000000000    0.0008137500

37   
  0.0000000000000000   0.0000000000000000   0.0100000000000000
  -0.0036450800    0.0000000000    0.0063136300
   0.0000000000    0.0000000000    0.0003530400
   0.0036450800    0.0000000000    0.0063136300
   0.0003500900    0.0003622400    0.0007697100
   0.0000000000    0.0001103500    0.0003529700
  -0.0003500900    0.0003622400    0.0007697100
   0.0003500900   -0.0003622400    0.0007697100
   0.0000000000   -0.0001103500    0.0003529700
  -0.0003500900   -0.0003622400    0.0007697100
  -0.0002835100    0.0000000000   -0.0006390300
   0.0000000000    0.0000000000   -0.0002977400
   0.0002835100    0.0000000000   -0.0006390300
  -0.0000520200   -0.0000642600   -0.0003269800
   0.0000000000   -0.0000189100   -0.0002336000
   0.0000520200   -0.0000642600   -0.0003269800
  -0.0000520200    0.0000642600   -0.0003269800
   0.0000000000    0.0000189100   -0.0002336000
   0.0000520200    0.0000642600   -0.0003269800
   0.0000000000    0.0036450800    0.0063136300
   0.0003622400   -0.0003500900    0.0007697100
  -0.0003622400   -0.0003500900    0.0007697100
   0.0000000000   -0.0036450800    0.0063136300
   0.0003622400    0.0003500900    0.0007697100
  -0.0003622400    0.0003500900    0.0007697100
   0.0000000000    0.0000000000    0.0003530400
   0.0001103500    0.0000000000    0.0003529700
  -0.0001103500    0.0000000000    0.0003529700
   0.0000000000    0.0002835100   -0.0006390300
  -0.0000642600    0.0000520200   -0.0003269800
   0.0000642600    0.0000520200   -0.0003269800
   0.0000000000   -0.0002835100   -0.0006390300
  -0.0000642600   -0.0000520200   -0.0003269800
   0.0000642600   -0.0000520200   -0.0003269800
   0.0000000000    0.0000000000   -0.0002977400
  -0.0000189100    0.0000000000   -0.0002336000
   0.0000189100    0.0000000000   -0.0002336000
   0.0000000000    0.0000000000   -0.0423173600
   0.0002536200    0.0000000000   -0.0036635500
  -0.0002536200    0.0000000000   -0.0036635500
   0.0000000000    0.0002536200   -0.0036635500
   0.0006980900    0.0006980900   -0.0020263500
  -0.0006980900    0.0006980900   -0.0020263500
   0.0000000000   -0.0002536200   -0.0036635500
   0.0006980900   -0.0006980900   -0.0020263500
  -0.0006980900   -0.0006980900   -0.0020263500
   0.0000000000    0.0000000000    0.0015431700
  -0.0000049300    0.0000000000    0.0001264000
   0.0000049300    0.0000000000    0.0001264000
   0.0000000000   -0.0000049300    0.0001264000
  -0.0000625200   -0.0000625200   -0.0001518100
   0.0000625200   -0.0000625200   -0.0001518100
   0.0000000000    0.0000049300    0.0001264000
  -0.0000625200    0.0000625200   -0.0001518100
   0.0000625200    0.0000625200   -0.0001518100
   0.0008806400   -0.0008806400    0.0016909900
   0.0000000000   -0.0002318500    0.0011112500
  -0.0008806400   -0.0008806400    0.0016909900
   0.0008806400    0.0008806400    0.0016909900
   0.0000000000    0.0002318500    0.0011112500
  -0.0008806400    0.0008806400    0.0016909900
   0.0002318500    0.0000000000    0.0011112500
   0.0000000000    0.0000000000    0.0010085700
  -0.0002318500    0.0000000000    0.0011112500
  -0.0043527300    0.0043527300    0.0034590400
   0.0000000000    0.0004096400    0.0002390800
   0.0043527300    0.0043527300    0.0034590400
  -0.0043527300   -0.0043527300    0.0034590400
   0.0000000000   -0.0004096400    0.0002390800
   0.0043527300   -0.0043527300    0.0034590400
  -0.0004096400    0.0000000000    0.0002390800
   0.0000000000    0.0000000000    0.0002386000
   0.0004096400    0.0000000000    0.0002390800
   0.0000000000    0.0000000000   -0.0032517400
  -0.0003169400    0.0000000000   -0.0010915000
   0.0003169400    0.0000000000   -0.0010915000
   0.0000000000   -0.0003169400   -0.0010915000
  -0.0001012800   -0.0001012800   -0.0009341800
   0.0001012800   -0.0001012800   -0.0009341800
   0.0000000000    0.0003169400   -0.0010915000
  -0.0001012800    0.0001012800   -0.0009341800
   0.0001012800    0.0001012800   -0.0009341800
   0.0000000000    0.0000000000   -0.0041745300
   0.0007703300    0.0000000000   -0.0010149700
  -0.0007703300    0.0000000000   -0.0010149700
   0.0000000000    0.0007703300   -0.0010149700
   0.0002898300    0.0002898300   -0.0008060300
  -0.0002898300    0.0002898300   -0.0008060300
   0.0000000000   -0.0007703300   -0.0010149700
   0.0002898300   -0.0002898300   -0.0008060300
  -0.0002898300   -0.0002898300   -0.0008060300
   0.0029542200   -0.0029542200    0.0057906500
   0.0000000000   -0.0001866700    0.0012939700
  -0.0029542200   -0.0029542200    0.0057906500
   0.0029542200    0.0029542200    0.0057906500
   0.0000000000    0.0001866700    0.0012939700
  -0.0029542200    0.0029542200    0.0057906500
   0.0001866700    0.0000000000    0.0012939700
   0.0000000000    0.0000000000    0.0009788900
  -0.0001866700    0.0000000000    0.0012939700
   0.0001291400   -0.0001291400    0.0001685700
   0.0000000000   -0.0000338400    0.0004593300
  -0.0001291400   -0.0001291400    0.0001685700
   0.0001291400    0.0001291400    0.0001685700
   0.0000000000    0.0000338400    0.0004593300
  -0.0001291400    0.0001291400    0.0001685700
   0.0000338400    0.0000000000    0.0004593300
   0.0000000000    0.0000000000    0.0005426500
  -0.0000338400    0.0000000000    0.0004593300

37   
  0.0000000000000000   0.0000000000000000  -0.0100000000000000
   0.0038284100    0.0000000000   -0.0064171100
   0.0000000000    0.0000000000   -0.0003540800
  -0.0038284100    0.0000000000   -0.0064171100
  -0.0003500800   -0.0003598200   -0.0007692300
   0.0000000000   -0.0001053700   -0.0003548900
   0.0003500800   -0.0003598200   -0.0007692300
  -0.0003500800    0.0003598200   -0.0007692300
   0.0000000000    0.0001053700   -0.0003548900
   0.0003500800    0.0003598200   -0.0007692300
   0.0002756000    0.0000000000    0.0006335500
   0.0000000000    0.0000000000    0.0002996300
  -0.0002756000    0.0000000000    0.0006335500
   0.0000487500    0.0000637500    0.0003279400
   0.0000000000    0.0000238400    0.0002359600
  -0.0000487500    0.0000637500    0.0003279400
   0.0000487500   -0.0000637500    0.0003279400
   0.0000000000   -0.0000238400    0.0002359600
  -0.0000487500   -0.0000637500    0.0003279400
   0.0000000000   -0.0038284100   -0.0064171100
  -0.0003598200    0.0003500800   -0.0007692300
   0.0003598200    0.0003500800   -0.0007692300
   0.0000000000    0.0038284100   -0.0064171100
  -0.0003598200   -0.0003500800   -0.0007692300
   0.0003598200   -0.0003500800   -0.0007692300
   0.0000000000    0.0000000000   -0.0003540800
  -0.0001053700    0.0000000000   -0.0003548900
   0.0001053700    0.0000000000   -0.0003548900
   0.0000000000   -0.0002756000    0.0006335500
   0.0000637500   -0.0000487500    0.0003279400
  -0.0000637500   -0.0000487500    0.0003279400
   0.0000000000    0.0002756000    0.0006335500
   0.0000637500    0.0000487500    0.0003279400
  -0.0000637500    0.0000487500    0.0003279400
   0.0000000000    0.0000000000    0.0002996300
   0.0000238400    0.0000000000    0.0002359600
  -0.0000238400    0.0000000000    0.0002359600
   0.0000000000    0.0000000000    0.0412796700
  -0.0002743400    0.0000000000    0.0022610100
   0.0002743400    0.0000000000    0.0022610100
   0.0000000000   -0.0002743400    0.0022610100
  -0.0006875900   -0.0006875900    0.0006348800
   0.0006875900   -0.0006875900    0.0006348800
   0.0000000000    0.0002743400    0.0022610100
  -0.0006875900    0.0006875900    0.0006348800
   0.0006875900    0.0006875900    0.0006348800
   0.0000000000    0.0000000000   -0.0029139900
   0.0000120300    0.0000000000   -0.0015129500
  -0.0000120300    0.0000000000   -0.0015129500
   0.0000000000    0.0000120300   -0.0015129500
   0.0000711500    0.0000711500   -0.0012436600
  -0.0000711500    0.0000711500   -0.0012436600
   0.0000000000   -0.0000120300   -0.0015129500
   0.0000711500   -0.0000711500   -0.0012436600
  -0.0000711500   -0.0000711500   -0.0012436600
  -0.0008741800    0.0008741800   -0.0002920200
   0.0000000000    0.0002308900    0.0002772600
   0.0008741800    0.0008741800   -0.0002920200
  -0.0008741800   -0.0008741800   -0.0002920200
   0.0000000000   -0.0002308900    0.0002772600
   0.0008741800   -0.0008741800   -0.0002920200
  -0.0002308900    0.0000000000    0.0002772600
   0.0000000000    0.0000000000    0.0003706600
   0.0002308900    0.0000000000    0.0002772600
   0.0043749000   -0.0043749000   -0.0020731800
   0.0000000000   -0.0004017400    0.0011564500
  -0.0043749000   -0.0043749000   -0.0020731800
   0.0043749000    0.0043749000   -0.0020731800
   0.0000000000    0.0004017400    0.0011564500
  -0.0043749000    0.0043749000   -0.0020731800
   0.0004017400    0.0000000000    0.0011564500
   0.0000000000    0.0000000000    0.0011594700
  -0.0004017400    0.0000000000    0.0011564500
   0.0000000000    0.0000000000    0.0015958400
   0.0003125200    0.0000000000   -0.0005331000
  -0.0003125200    0.0000000000   -0.0005331000
   0.0000000000    0.0003125200   -0.0005331000
   0.0001133000    0.0001133000   -0.0006767500
  -0.0001133000    0.0001133000   -0.0006767500
   0.0000000000   -0.0003125200   -0.0005331000
   0.0001133000   -0.0001133000   -0.0006767500
  -0.0001133000   -0.0001133000   -0.0006767500
   0.0000000000    0.0000000000    0.0026405600
  -0.0007657100    0.0000000000   -0.0006187400
   0.0007657100    0.0000000000   -0.0006187400
   0.0000000000   -0.0007657100   -0.0006187400
  -0.0002761000   -0.0002761000   -0.0008133800
   0.0002761000   -0.0002761000   -0.0008133800
   0.0000000000    0.0007657100   -0.0006187400
  -0.0002761000    0.0002761000   -0.0008133800
   0.0002761000    0.0002761000   -0.0008133800
  -0.0029005800    0.0029005800   -0.0041573100
   0.0000000000    0.0001866700    0.0003328400
   0.0029005800    0.0029005800   -0.0041573100
  -0.0029005800   -0.0029005800   -0.0041573100
   0.0000000000   -0.0001866700    0.0003328400
   0.0029005800   -0.0029005800   -0.0041573100
  -0.0001866700    0.0000000000    0.0003328400
   0.0000000000    0.0000000000    0.0006351200
   0.0001866700    0.0000000000    0.0003328400
  -0.0001446900    0.0001446900    0.0014459400
   0.0000000000    0.0000350500    0.0011641000
   0.0001446900    0.0001446900    0.0014459400
  -0.0001446900   -0.0001446900    0.0014459400
   0.0000000000   -0.0000350500    0.0011641000
   0.0001446900   -0.0001446900    0.0014459400
  -0.0000350500    0.0000000000    0.0011641000
   0.0000000000    0.0000000000    0.0010762500
   0.0000350500    0.0000000000    0.0011641000

73   
  0.0100000000000000   0.0000000000000000   0.0000000000000000
  -0.0000605200    0.0000000000   -0.0000847200
   0.0001164600    0.0000000000   -0.0000001600
  -0.0000480000    0.0000000000    0.0000855900
  -0.0000486600    0.0000800800   -0.0001032300
   0.0000940800   -0.0000020000   -0.0000001200
  -0.0000390600   -0.0000860600    0.0001036300
  -0.0000486600   -0.0000800800   -0.0001032300
   0.0000940800    0.0000020000   -0.0000001200
  -0.0000390600    0.0000860600    0.0001036300
   0.0013668000    0.0000000000    0.0026797100
   0.0005679700    0.0000000000    0.0000018800
   0.0013779200    0.0000000000   -0.0026663700
  -0.0002600200    0.0005677800    0.0003653100
   0.0002474700   -0.0000010400    0.0000008300
  -0.0002467800   -0.0005694900   -0.0003630600
  -0.0002600200   -0.0005677800    0.0003653100
   0.0002474700    0.0000010400    0.0000008300
  -0.0002467800    0.0005694900   -0.0003630600
  -0.0001536500   -0.0000015400    0.0000003500
   0.0001173100   -0.0000148100   -0.0000971000
   0.0001079600    0.0000089100    0.0000972200
  -0.0001536500    0.0000015400    0.0000003500
   0.0001173100    0.0000148100   -0.0000971000
   0.0001079600   -0.0000089100    0.0000972200
  -0.0000750200    0.0000000000    0.0000003800
   0.0000370600    0.0000000000   -0.0000199500
   0.0000255900    0.0000000000    0.0000202600
  -0.0009613300    0.0000072000   -0.0000102200
   0.0006457600   -0.0001500400    0.0003260300
   0.0006365300    0.0001433800   -0.0003244000
  -0.0009613300   -0.0000072000   -0.0000102200
   0.0006457600    0.0001500400    0.0003260300
   0.0006365300   -0.0001433800   -0.0003244000
  -0.0002426700    0.0000000000   -0.0000008800
   0.0001225000    0.0000000000    0.0000285000
   0.0001117100    0.0000000000   -0.0000280500
   0.0007812600    0.0000000000   -0.0007119400
  -0.0003751300    0.0000000000   -0.0003946100
  -0.0004162000    0.0000000000   -0.0010216200
   0.0005815900   -0.0000121000   -0.0007033300
  -0.0002918200   -0.0002030000   -0.0005985700
  -0.0003356100    0.0001824600   -0.0008134500
   0.0005815900    0.0000121000   -0.0007033300
  -0.0002918200    0.0002030000   -0.0005985700
  -0.0003356100   -0.0001824600   -0.0008134500
   0.0019809300    0.0000000000   -0.0006955000
  -0.0008720600    0.0000000000   -0.0014774600
  -0.0009128700    0.0000000000    0.0000584600
   0.0006141100   -0.0000093700   -0.0007014000
  -0.0002964200   -0.0002244300   -0.0009900000
  -0.0003402000    0.0002053100   -0.0004226700
   0.0006141100    0.0000093700   -0.0007014000
  -0.0002964200    0.0002244300   -0.0009900000
  -0.0003402000   -0.0002053100   -0.0004226700
   0.0053540400   -0.0024443400    0.0036974100
  -0.0015646200   -0.0000064700    0.0007001700
   0.0052353200    0.0022514400   -0.0021598700
   0.0053540400    0.0024443400    0.0036974100
  -0.0015646200    0.0000064700    0.0007001700
   0.0052353200   -0.0022514400   -0.0021598700
   0.0002850100    0.0000000000    0.0008954900
  -0.0006539200    0.0000000000    0.0007041900
   0.0003153200    0.0000000000    0.0005250500
   0.0000737600   -0.0000131800    0.0008437500
  -0.0001916400   -0.0000125100    0.0007023600
   0.0001162800   -0.0000052000    0.0005677400
   0.0000737600    0.0000131800    0.0008437500
  -0.0001916400    0.0000125100    0.0007023600
   0.0001162800    0.0000052000    0.0005677400
   0.0000465700    0.0000000000    0.0007432200
  -0.0001325300    0.0000000000    0.0007037200
   0.0000826300    0.0000000000    0.0006747200
  -0.0349094600    0.0000000000   -0.0010256500
   0.0050738200    0.0000000000   -0.0002768200
   0.0049512700    0.0000000000   -0.0013292700
  -0.0009541900   -0.0000228000   -0.0008113500